Title: * spicenetlist
Date: Sat Mar 04 21:01:03  2023
Plotname: Transient Analysis
Flags: real
No. Variables: 5
No. Points: 1900
Variables:
	0	time	time
	1	v(vin)	voltage
	2	v(vq)	voltage
	3	v(vout)	voltage
	4	i(i(v_v1))	current
Values:
 0	2.000001288717667e-002
	6.000000000000000e+000
	5.044804123530719e+000
	4.264340902732306e+000
	-1.746559360270475e-003

 1	2.000003288827667e-002
	6.000000000000000e+000
	5.045898975355214e+000
	4.265463240878898e+000
	-1.745479361663114e-003

 2	2.000005288937667e-002
	6.000000000000000e+000
	5.046991177880425e+000
	4.266582895730906e+000
	-1.744401954766880e-003

 3	2.000007289047667e-002
	6.000000000000000e+000
	5.048080737431461e+000
	4.267699873766478e+000
	-1.743327133355153e-003

 4	2.000009289157667e-002
	6.000000000000000e+000
	5.049167660292214e+000
	4.268814181466325e+000
	-1.742254891214656e-003

 5	2.000011289267667e-002
	6.000000000000000e+000
	5.050251952698038e+000
	4.269925825318953e+000
	-1.741185222144930e-003

 6	2.000013289377666e-002
	6.000000000000000e+000
	5.051333620826394e+000
	4.271034811827537e+000
	-1.740118119957519e-003

 7	2.000015289487666e-002
	6.000000000000000e+000
	5.052412670784571e+000
	4.272141147518308e+000
	-1.739053578475315e-003

 8	2.000017289597666e-002
	6.000000000000000e+000
	5.053489108594838e+000
	4.273244838952376e+000
	-1.737991591530719e-003

 9	2.000019289707666e-002
	6.000000000000000e+000
	5.054562940172932e+000
	4.274345892738261e+000
	-1.736932152965795e-003

 10	2.000021289817666e-002
	6.000000000000000e+000
	5.055634171303596e+000
	4.275444315551136e+000
	-1.735875256629389e-003

 11	2.000023289927666e-002
	6.000000000000000e+000
	5.056702807607658e+000
	4.276540114155884e+000
	-1.734820896374977e-003

 12	2.000025290037666e-002
	6.000000000000000e+000
	5.057768854499074e+000
	4.277633295435676e+000
	-1.733769066058780e-003

 13	2.000027290147665e-002
	6.000000000000000e+000
	5.058832317132133e+000
	4.278723866430699e+000
	-1.732719759535242e-003

 14	2.000029290257665e-002
	6.000000000000000e+000
	5.059893200331849e+000
	4.279811834385546e+000
	-1.731672970653292e-003

 15	2.000031290367665e-002
	6.000000000000000e+000
	5.060951508506548e+000
	4.280897206811158e+000
	-1.730628693250160e-003

 16	2.000033290477665e-002
	6.000000000000000e+000
	5.062007245534865e+000
	4.281979991562467e+000
	-1.729586921144863e-003

 17	2.000035290587665e-002
	6.000000000000000e+000
	5.063060414623136e+000
	4.283060196939054e+000
	-1.728547648128317e-003

 18	2.000037290697665e-002
	6.000000000000000e+000
	5.064111018122100e+000
	4.284137831811808e+000
	-1.727510867952283e-003

 19	2.000039290807664e-002
	6.000000000000000e+000
	5.065159057294258e+000
	4.285212905785279e+000
	-1.726476574314328e-003

 20	2.000041290917664e-002
	6.000000000000000e+000
	5.066204532016667e+000
	4.286285429403311e+000
	-1.725444760839662e-003

 21	2.000043291027664e-002
	6.000000000000000e+000
	5.067247440404487e+000
	4.287355414412417e+000
	-1.724415421056304e-003

 22	2.000045291137664e-002
	6.000000000000000e+000
	5.068287778329422e+000
	4.288422874093760e+000
	-1.723388548366271e-003

 23	2.000047291247664e-002
	6.000000000000000e+000
	5.069325538809340e+000
	4.289487823686594e+000
	-1.722364136007350e-003

 24	2.000049291357664e-002
	6.000000000000000e+000
	5.070360711233747e+000
	4.290550280926590e+000
	-1.721342177003888e-003

 25	2.000051291467664e-002
	6.000000000000000e+000
	5.071393280377566e+000
	4.291610266725717e+000
	-1.720322664107373e-003

 26	2.000053291577663e-002
	6.000000000000000e+000
	5.072423225152729e+000
	4.292667806036837e+000
	-1.719305589718638e-003

 27	2.000055291687663e-002
	6.000000000000000e+000
	5.073450517024928e+000
	4.293722928948254e+000
	-1.718290945790119e-003

 28	2.000057291797663e-002
	6.000000000000000e+000
	5.074475118006720e+000
	4.294775672068058e+000
	-1.717278723703509e-003

 29	2.000059291907663e-002
	6.000000000000000e+000
	5.075496978117904e+000
	4.295826080275978e+000
	-1.716268914114422e-003

 30	2.000061292017663e-002
	6.000000000000000e+000
	5.076516032173810e+000
	4.296874208937910e+000
	-1.715261506755872e-003

 31	2.000063292127663e-002
	6.000000000000000e+000
	5.077532195725338e+000
	4.297920126701383e+000
	-1.714256490191275e-003

 32	2.000065292237662e-002
	6.000000000000000e+000
	5.078545359932177e+000
	4.298963919021647e+000
	-1.713253851503568e-003

 33	2.000067292347662e-002
	6.000000000000000e+000
	5.079555385098204e+000
	4.300005692607757e+000
	-1.712253575901238e-003

 34	2.000069292457662e-002
	6.000000000000000e+000
	5.080562092523719e+000
	4.301045581017030e+000
	-1.711255646224371e-003

 35	2.000071292567662e-002
	6.000000000000000e+000
	5.081565254253602e+000
	4.302083751689917e+000
	-1.710260042321213e-003

 36	2.000073292677662e-002
	6.000000000000000e+000
	5.082564580194511e+000
	4.303120414781523e+000
	-1.709266740263099e-003

 37	2.000075292787662e-002
	6.000000000000000e+000
	5.083559701952237e+000
	4.304155834229508e+000
	-1.708275711356282e-003

 38	2.000077292897661e-002
	6.000000000000000e+000
	5.084550152594077e+000
	4.305190341598406e+000
	-1.707286920896834e-003

 39	2.000079293007661e-002
	6.000000000000000e+000
	5.085535341365295e+000
	4.306224353355601e+000
	-1.706300326602115e-003

 40	2.000081293117661e-002
	6.000000000000000e+000
	5.086514522188764e+000
	4.307258392372290e+000
	-1.705315876631214e-003

 41	2.000083293227661e-002
	6.000000000000000e+000
	5.087486754542792e+000
	4.308293114591567e+000
	-1.704333507086657e-003

 42	2.000085293337661e-002
	6.000000000000000e+000
	5.088450855064431e+000
	4.309329341978303e+000
	-1.703353138852908e-003

 43	2.000087293447661e-002
	6.000000000000000e+000
	5.089405337960848e+000
	4.310368103041471e+000
	-1.702374673583637e-003

 44	2.000089293557661e-002
	6.000000000000000e+000
	5.090348342050344e+000
	4.311410682390646e+000
	-1.701397988592002e-003

 45	2.000091293667660e-002
	6.000000000000000e+000
	5.091277542039639e+000
	4.312458680955585e+000
	-1.700422930303223e-003

 46	2.000093293777660e-002
	6.000000000000000e+000
	5.092190041488793e+000
	4.313514088625199e+000
	-1.699449305803536e-003

 47	2.000095293887660e-002
	6.000000000000000e+000
	5.093082244877789e+000
	4.314579371169820e+000
	-1.698476871818639e-003

 48	2.000097293997660e-002
	6.000000000000000e+000
	5.093949706276255e+000
	4.315657573426931e+000
	-1.697505320142051e-003

 49	2.000099294107660e-002
	6.000000000000000e+000
	5.094786952272211e+000
	4.316752440981849e+000
	-1.696534258035191e-003

 50	2.000101294217660e-002
	6.000000000000000e+000
	5.095587276815745e+000
	4.317868563291540e+000
	-1.695563181294263e-003

 51	2.000103294327659e-002
	6.000000000000000e+000
	5.096342504875265e+000
	4.319011543062304e+000
	-1.694591436302901e-003

 52	2.000105294437659e-002
	6.000000000000000e+000
	5.097042719009705e+000
	4.320188201082072e+000
	-1.693618165044582e-003

 53	2.000107294547659e-002
	6.000000000000000e+000
	5.097675935548454e+000
	4.321406835184506e+000
	-1.692642223019628e-003

 54	2.000109294657659e-002
	6.000000000000000e+000
	5.098227700195398e+000
	4.322677571373825e+000
	-1.691662052897226e-003

 55	2.000111294767659e-002
	6.000000000000000e+000
	5.098680537199513e+000
	4.324012883336160e+000
	-1.690675483824721e-003

 56	2.000113294877659e-002
	6.000000000000000e+000
	5.099013113047661e+000
	4.325428431909153e+000
	-1.689679401659051e-003

 57	2.000115294987659e-002
	6.000000000000000e+000
	5.099198823103740e+000
	4.326944530129335e+000
	-1.688669184840259e-003

 58	2.000117295097658e-002
	6.000000000000000e+000
	5.099203171175909e+000
	4.328588879753450e+000
	-1.687637686882944e-003

 59	2.000119295207658e-002
	6.000000000000000e+000
	5.098978474712212e+000
	4.330402070740556e+000
	-1.686573258366388e-003

 60	2.000121295317658e-002
	6.000000000000000e+000
	5.098452010316650e+000
	4.332449793489312e+000
	-1.685455453868863e-003

 61	2.000123295427658e-002
	6.000000000000000e+000
	5.097495076656821e+000
	4.334854543934910e+000
	-1.684244008515937e-003

 62	2.000125295537658e-002
	6.000000000000000e+000
	5.095817880057542e+000
	4.337903293500705e+000
	-1.682841483822300e-003

 63	2.000127295647658e-002
	6.000000000000000e+000
	5.092347749788220e+000
	4.342686398384231e+000
	-1.680871111598845e-003

 64	2.000127545661408e-002
	6.000000000000000e+000
	5.090861303150961e+000
	4.344369840881150e+000
	-1.680245641681997e-003

 65	2.000127608164845e-002
	6.000000000000000e+000
	5.090087995318545e+000
	4.345209746637224e+000
	-1.679941726157069e-003

 66	2.000127733171720e-002
	6.000000000000000e+000
	5.093402287043898e+000
	4.341805999837419e+000
	-1.681130406827897e-003

 67	2.000127764423439e-002
	6.000000000000000e+000
	5.091421693774472e+000
	4.343895582940412e+000
	-1.680387008408746e-003

 68	2.000127826926876e-002
	6.000000000000000e+000
	5.090267901507819e+000
	4.345135226624592e+000
	-1.679940951469578e-003

 69	2.000127842552736e-002
	6.000000000000000e+000
	5.086933703840236e+000
	4.348624916992385e+000
	-1.678709220813810e-003

 70	2.000127873804455e-002
	6.000000000000000e+000
	5.092412684257440e+000
	4.342913041042909e+000
	-1.680721903050617e-003

 71	2.000127881617385e-002
	6.000000000000000e+000
	5.090847434766980e+000
	4.344554486298126e+000
	-1.680140662405792e-003

 72	2.000127897243244e-002
	6.000000000000000e+000
	5.092005775279348e+000
	4.343355279763514e+000
	-1.680560032247447e-003

 73	2.000127928494963e-002
	6.000000000000000e+000
	5.092211325684270e+000
	4.343157273460122e+000
	-1.680625870179454e-003

 74	2.000127929471579e-002
	6.000000000000000e+000
	5.091720299529825e+000
	4.343665639959767e+000
	-1.680449056816434e-003

 75	2.000127929715733e-002
	6.000000000000000e+000
	5.091542107634306e+000
	4.343856867834212e+000
	-1.680379103750585e-003

 76	2.000127930204041e-002
	6.000000000000000e+000
	5.091750844775082e+000
	4.343634041088780e+000
	-1.680460142397962e-003

 77	2.000127930326118e-002
	6.000000000000000e+000
	5.091816854226258e+000
	4.343570100322275e+000
	-1.680480116994054e-003

 78	2.000127930570272e-002
	6.000000000000000e+000
	5.091829244111620e+000
	4.343552110658155e+000
	-1.680489101985439e-003

 79	2.000127930631311e-002
	6.000000000000000e+000
	5.092095973441017e+000
	4.343278746724323e+000
	-1.680582769453495e-003

 80	2.000127930753388e-002
	6.000000000000000e+000
	5.091881051677263e+000
	4.343503276372893e+000
	-1.680503617944021e-003

 81	2.000127930997542e-002
	6.000000000000000e+000
	5.091915181722186e+000
	4.343467757100918e+000
	-1.680516107899474e-003

 82	2.000127931058580e-002
	6.000000000000000e+000
	5.091803515318116e+000
	4.343584419786474e+000
	-1.680474975671596e-003

 83	2.000127931180657e-002
	6.000000000000000e+000
	5.091668937906518e+000
	4.343725169711462e+000
	-1.680425344108055e-003

 84	2.000127931424811e-002
	6.000000000000000e+000
	5.091731901692171e+000
	4.343659539182418e+000
	-1.680448446837578e-003

 85	2.000127931913119e-002
	6.000000000000000e+000
	5.091969249902419e+000
	4.343411766604149e+000
	-1.680535728792831e-003

 86	2.000127932035196e-002
	6.000000000000000e+000
	5.091763786118308e+000
	4.343626423866255e+000
	-1.680460036671111e-003

 87	2.000127932065716e-002
	6.000000000000000e+000
	5.091812568551767e+000
	4.343575627851934e+000
	-1.680477944375244e-003

 88	2.000127932126754e-002
	6.000000000000000e+000
	5.091883809281324e+000
	4.343501117488565e+000
	-1.680504204977769e-003

 89	2.000127932248831e-002
	6.000000000000000e+000
	5.091886211233551e+000
	4.343498671646238e+000
	-1.680505052081507e-003

 90	2.000127932492985e-002
	6.000000000000000e+000
	5.091787807778606e+000
	4.343601583391717e+000
	-1.680468737247431e-003

 91	2.000127932492987e-002
	6.000000000000000e+000
	5.092298968255008e+000
	4.343143711232216e+000
	-1.680606373040613e-003

 92	2.000127932492991e-002
	6.000000000000000e+000
	5.091081134231735e+000
	4.344391152549243e+000
	-1.680174408224468e-003

 93	2.000127932492998e-002
	6.000000000000000e+000
	5.091563565312205e+000
	4.343816353521294e+000
	-1.680400224583177e-003

 94	2.000127932493013e-002
	6.000000000000000e+000
	5.091792827769310e+000
	4.343609629408938e+000
	-1.680461786435249e-003

 95	2.000127932493017e-002
	6.000000000000000e+000
	5.091516149911061e+000
	4.343856811333168e+000
	-1.680387709217199e-003

 96	2.000127932493024e-002
	6.000000000000000e+000
	5.092018022226528e+000
	4.343305618630918e+000
	-1.680591817887145e-003

 97	2.000127932493026e-002
	6.000000000000000e+000
	5.091423131678254e+000
	4.343897606622463e+000
	-1.680391853463548e-003

 98	2.000127932493030e-002
	6.000000000000000e+000
	5.092397619687398e+000
	4.343001209899228e+000
	-1.680669013218072e-003

 99	2.000127932493037e-002
	6.000000000000000e+000
	5.091750577927900e+000
	4.343624101109668e+000
	-1.680466938025347e-003

 100	2.000127932493039e-002
	6.000000000000000e+000
	5.092029052603990e+000
	4.343366509292437e+000
	-1.680547435078842e-003

 101	2.000127932493043e-002
	6.000000000000000e+000
	5.091968571181807e+000
	4.343407069754445e+000
	-1.680540336435577e-003

 102	2.000127932493050e-002
	6.000000000000000e+000
	5.092298268909841e+000
	4.343041735610299e+000
	-1.680674488918005e-003

 103	2.000127932493065e-002
	6.000000000000000e+000
	5.091712959507401e+000
	4.343686055377972e+000
	-1.680436976421893e-003

 104	2.000127932493069e-002
	6.000000000000000e+000
	5.091548100106811e+000
	4.343833455293332e+000
	-1.680393894923464e-003

 105	2.000127932493076e-002
	6.000000000000000e+000
	5.091376523434859e+000
	4.344018645656888e+000
	-1.680325613047095e-003

 106	2.000127932493091e-002
	6.000000000000000e+000
	2.011606989527507e+000
	5.999999985017410e+000
	-1.533919634426949e-003

 107	2.000127932493121e-002
	6.000000000000000e+000
	2.011949714189936e+000
	5.999999985017924e+000
	-1.533832637885098e-003

 108	2.000127932493180e-002
	6.000000000000000e+000
	2.012424054388192e+000
	5.999999985018635e+000
	-1.533711923360614e-003

 109	2.000127932493300e-002
	6.000000000000000e+000
	2.012404340623192e+000
	5.999999985018606e+000
	-1.533716035621128e-003

 110	2.000127932493538e-002
	6.000000000000000e+000
	2.012428715268507e+000
	5.999999985018643e+000
	-1.533710258515113e-003

 111	2.000127932494015e-002
	6.000000000000000e+000
	2.012429735178035e+000
	5.999999985018644e+000
	-1.533709872135795e-003

 112	2.000127932494969e-002
	6.000000000000000e+000
	2.012429827964543e+000
	5.999999985018644e+000
	-1.533709848031344e-003

 113	2.000127932496876e-002
	6.000000000000000e+000
	2.012429625224918e+000
	5.999999985018643e+000
	-1.533709927572614e-003

 114	2.000127932500691e-002
	6.000000000000000e+000
	2.012429655149658e+000
	5.999999985018644e+000
	-1.533709915832342e-003

 115	2.000127932508321e-002
	6.000000000000000e+000
	2.012429619041269e+000
	5.999999985018643e+000
	-1.533709929998811e-003

 116	2.000127932523580e-002
	6.000000000000000e+000
	2.012429652883700e+000
	5.999999985018644e+000
	-1.533709916721353e-003

 117	2.000127932554100e-002
	6.000000000000000e+000
	2.012429680629432e+000
	5.999999985018644e+000
	-1.533709905835823e-003

 118	2.000127932615138e-002
	6.000000000000000e+000
	2.012429766386482e+000
	5.999999985018644e+000
	-1.533709872190615e-003

 119	2.000127932737215e-002
	6.000000000000000e+000
	2.012429936776506e+000
	5.999999985018644e+000
	-1.533709805341211e-003

 120	2.000127932981369e-002
	6.000000000000000e+000
	2.012430275299146e+000
	5.999999985018645e+000
	-1.533709672528057e-003

 121	2.000127933469677e-002
	6.000000000000000e+000
	2.012430952655255e+000
	5.999999985018646e+000
	-1.533709406779819e-003

 122	2.000127934446294e-002
	6.000000000000000e+000
	2.012432309289898e+000
	5.999999985018648e+000
	-1.533708874529173e-003

 123	2.000127936399526e-002
	6.000000000000000e+000
	2.012435021678491e+000
	5.999999985018652e+000
	-1.533707810373644e-003

 124	2.000127940305991e-002
	6.000000000000000e+000
	2.012440446977384e+000
	5.999999985018660e+000
	-1.533705681858862e-003

 125	2.000127948118921e-002
	6.000000000000000e+000
	2.012451296801924e+000
	5.999999985018676e+000
	-1.533701425136491e-003

 126	2.000127963744780e-002
	6.000000000000000e+000
	2.012472996644066e+000
	5.999999985018709e+000
	-1.533692911631318e-003

 127	2.000127994996499e-002
	6.000000000000000e+000
	2.012516395475102e+000
	5.999999985018774e+000
	-1.533675885016981e-003

 128	2.000128057499936e-002
	6.000000000000000e+000
	2.012603190438947e+000
	5.999999985018905e+000
	-1.533641833091997e-003

 129	2.000128182506811e-002
	6.000000000000000e+000
	2.012776769494059e+000
	5.999999985019165e+000
	-1.533573734488661e-003

 130	2.000128432520561e-002
	6.000000000000000e+000
	2.013123884010534e+000
	5.999999985019685e+000
	-1.533437558313999e-003

 131	2.000128932548061e-002
	6.000000000000000e+000
	2.013817939110614e+000
	5.999999985020726e+000
	-1.533165289958650e-003

 132	2.000129932603061e-002
	6.000000000000000e+000
	2.015205356605472e+000
	5.999999985022807e+000
	-1.532621088353945e-003

 133	2.000131932713061e-002
	6.000000000000000e+000
	2.017977445438477e+000
	5.999999985026966e+000
	-1.531534018466735e-003

 134	2.000133932823061e-002
	6.000000000000000e+000
	2.020745918833192e+000
	5.999999985031118e+000
	-1.530448713293552e-003

 135	2.000135932933061e-002
	6.000000000000000e+000
	2.023510834568512e+000
	5.999999985035266e+000
	-1.529365156381771e-003

 136	2.000137933043061e-002
	6.000000000000000e+000
	2.026272251798347e+000
	5.999999985039408e+000
	-1.528283330934763e-003

 137	2.000139933153061e-002
	6.000000000000000e+000
	2.029030231270300e+000
	5.999999985043544e+000
	-1.527203219756561e-003

 138	2.000141933263060e-002
	6.000000000000000e+000
	2.031784835342564e+000
	5.999999985047677e+000
	-1.526124805247458e-003

 139	2.000143933373060e-002
	6.000000000000000e+000
	2.034536128056587e+000
	5.999999985051804e+000
	-1.525048069385693e-003

 140	2.000145933483060e-002
	6.000000000000000e+000
	2.037284175214964e+000
	5.999999985055926e+000
	-1.523972993707647e-003

 141	2.000147933593060e-002
	6.000000000000000e+000
	2.040029044463181e+000
	5.999999985060043e+000
	-1.522899559287130e-003

 142	2.000149933703060e-002
	6.000000000000000e+000
	2.042770805375995e+000
	5.999999985064155e+000
	-1.521827746713516e-003

 143	2.000151933813060e-002
	6.000000000000000e+000
	2.045509529549375e+000
	5.999999985068263e+000
	-1.520757536068366e-003

 144	2.000153933923059e-002
	6.000000000000000e+000
	2.048245290697418e+000
	5.999999985072368e+000
	-1.519688906900852e-003

 145	2.000155934033059e-002
	6.000000000000000e+000
	2.050978164753591e+000
	5.999999985076467e+000
	-1.518621838202268e-003

 146	2.000157934143059e-002
	6.000000000000000e+000
	2.053708229982107e+000
	5.999999985080562e+000
	-1.517556308377419e-003

 147	2.000159934253059e-002
	6.000000000000000e+000
	2.056435567090291e+000
	5.999999985084653e+000
	-1.516492295216522e-003

 148	2.000161934363059e-002
	6.000000000000000e+000
	2.059160259352789e+000
	5.999999985088740e+000
	-1.515429775863433e-003

 149	2.000163934473059e-002
	6.000000000000000e+000
	2.061882392740344e+000
	5.999999985092823e+000
	-1.514368726783134e-003

 150	2.000165934583058e-002
	6.000000000000000e+000
	2.064602056057956e+000
	5.999999985096903e+000
	-1.513309123726649e-003

 151	2.000167934693058e-002
	6.000000000000000e+000
	2.067319341091582e+000
	5.999999985100978e+000
	-1.512250941693815e-003

 152	2.000169934803058e-002
	6.000000000000000e+000
	2.070034342763450e+000
	5.999999985105051e+000
	-1.511194154893972e-003

 153	2.000171934913058e-002
	6.000000000000000e+000
	2.072747159298717e+000
	5.999999985109120e+000
	-1.510138736703597e-003

 154	2.000173935023058e-002
	6.000000000000000e+000
	2.075457892401455e+000
	5.999999985113186e+000
	-1.509084659621763e-003

 155	2.000175935133058e-002
	6.000000000000000e+000
	2.078166647444081e+000
	5.999999985117249e+000
	-1.508031895221964e-003

 156	2.000177935243058e-002
	6.000000000000000e+000
	2.080873533666720e+000
	5.999999985121310e+000
	-1.506980414101766e-003

 157	2.000179935353057e-002
	6.000000000000000e+000
	2.083578664393645e+000
	5.999999985125368e+000
	-1.505930185827660e-003

 158	2.000181935463057e-002
	6.000000000000000e+000
	2.086282157261241e+000
	5.999999985129422e+000
	-1.504881178877415e-003

 159	2.000183935573057e-002
	6.000000000000000e+000
	2.088984134463527e+000
	5.999999985133476e+000
	-1.503833360577759e-003

 160	2.000185935683057e-002
	6.000000000000000e+000
	2.091684723015068e+000
	5.999999985137526e+000
	-1.502786697037615e-003

 161	2.000187935793057e-002
	6.000000000000000e+000
	2.094384055031172e+000
	5.999999985141575e+000
	-1.501741153077131e-003

 162	2.000189935903057e-002
	6.000000000000000e+000
	2.097082268030205e+000
	5.999999985145623e+000
	-1.500696692150868e-003

 163	2.000191936013056e-002
	6.000000000000000e+000
	2.099779505255370e+000
	5.999999985149668e+000
	-1.499653276266358e-003

 164	2.000193936123056e-002
	6.000000000000000e+000
	2.102475916023652e+000
	5.999999985153713e+000
	-1.498610865895341e-003

 165	2.000195936233056e-002
	6.000000000000000e+000
	2.105171656097876e+000
	5.999999985157757e+000
	-1.497569419879528e-003

 166	2.000197936343056e-002
	6.000000000000000e+000
	2.107866888088316e+000
	5.999999985161800e+000
	-1.496528895328696e-003

 167	2.000199936453056e-002
	6.000000000000000e+000
	2.110561781885311e+000
	5.999999985165842e+000
	-1.495489247510884e-003

 168	2.000201936563056e-002
	6.000000000000000e+000
	2.113256515125422e+000
	5.999999985169884e+000
	-1.494450429734123e-003

 169	2.000203936673056e-002
	6.000000000000000e+000
	2.115951273693996e+000
	5.999999985173926e+000
	-1.493412393218955e-003

 170	2.000205936783055e-002
	6.000000000000000e+000
	2.118646252269199e+000
	5.999999985177968e+000
	-1.492375086960308e-003

 171	2.000207936893055e-002
	6.000000000000000e+000
	2.121341654908109e+000
	5.999999985182012e+000
	-1.491338457578928e-003

 172	2.000209937003055e-002
	6.000000000000000e+000
	2.124037695684332e+000
	5.999999985186056e+000
	-1.490302449159364e-003

 173	2.000211937113055e-002
	6.000000000000000e+000
	2.126734599375442e+000
	5.999999985190101e+000
	-1.489267003075713e-003

 174	2.000213937223055e-002
	6.000000000000000e+000
	2.129432602211304e+000
	5.999999985194148e+000
	-1.488232057801608e-003

 175	2.000215937333055e-002
	6.000000000000000e+000
	2.132131952686144e+000
	5.999999985198198e+000
	-1.487197548704101e-003

 176	2.000217937443054e-002
	6.000000000000000e+000
	2.134832912439854e+000
	5.999999985202249e+000
	-1.486163407820148e-003

 177	2.000219937553054e-002
	6.000000000000000e+000
	2.137535757220610e+000
	5.999999985206303e+000
	-1.485129563612105e-003

 178	2.000221937663054e-002
	6.000000000000000e+000
	2.140240777931365e+000
	5.999999985210360e+000
	-1.484095940702202e-003

 179	2.000223937773054e-002
	6.000000000000000e+000
	2.142948281772238e+000
	5.999999985214422e+000
	-1.483062459582668e-003

 180	2.000225937883054e-002
	6.000000000000000e+000
	2.145658593491236e+000
	5.999999985218487e+000
	-1.482029036298020e-003

 181	2.000227937993054e-002
	6.000000000000000e+000
	2.148372056747825e+000
	5.999999985222558e+000
	-1.480995582099305e-003

 182	2.000229938103054e-002
	6.000000000000000e+000
	2.151089035612755e+000
	5.999999985226633e+000
	-1.479962003062981e-003

 183	2.000231938213053e-002
	6.000000000000000e+000
	2.153809916207976e+000
	5.999999985230715e+000
	-1.478928199674902e-003

 184	2.000233938323053e-002
	6.000000000000000e+000
	2.156535108511419e+000
	5.999999985234802e+000
	-1.477894066372019e-003

 185	2.000235938433053e-002
	6.000000000000000e+000
	2.159265048340362e+000
	5.999999985238897e+000
	-1.476859491038942e-003

 186	2.000237938543053e-002
	6.000000000000000e+000
	2.162000199537915e+000
	5.999999985243000e+000
	-1.475824354452723e-003

 187	2.000239938653053e-002
	6.000000000000000e+000
	2.164741056382348e+000
	5.999999985247111e+000
	-1.474788529671335e-003

 188	2.000241938763053e-002
	6.000000000000000e+000
	2.167488146252091e+000
	5.999999985251232e+000
	-1.473751881356816e-003

 189	2.000243938873052e-002
	6.000000000000000e+000
	2.170242032570227e+000
	5.999999985255363e+000
	-1.472714265027853e-003

 190	2.000245938983052e-002
	6.000000000000000e+000
	2.173003318069239e+000
	5.999999985259504e+000
	-1.471675526230717e-003

 191	2.000247939093052e-002
	6.000000000000000e+000
	2.175772648412168e+000
	5.999999985263658e+000
	-1.470635499619800e-003

 192	2.000249939203052e-002
	6.000000000000000e+000
	2.178550716215974e+000
	5.999999985267825e+000
	-1.469594007935979e-003

 193	2.000251939313052e-002
	6.000000000000000e+000
	2.181338265528518e+000
	5.999999985272007e+000
	-1.468550860869741e-003

 194	2.000253939423052e-002
	6.000000000000000e+000
	2.184136096816652e+000
	5.999999985276204e+000
	-1.467505853794498e-003

 195	2.000255939533051e-002
	6.000000000000000e+000
	2.186945072532113e+000
	5.999999985280417e+000
	-1.466458766353105e-003

 196	2.000257939643051e-002
	6.000000000000000e+000
	2.189766123329122e+000
	5.999999985284648e+000
	-1.465409360878917e-003

 197	2.000259939753051e-002
	6.000000000000000e+000
	2.192600255021064e+000
	5.999999985288900e+000
	-1.464357380628936e-003

 198	2.000261939863051e-002
	6.000000000000000e+000
	2.195448556369595e+000
	5.999999985293172e+000
	-1.463302547805668e-003

 199	2.000263939973051e-002
	6.000000000000000e+000
	2.198312207817783e+000
	5.999999985297468e+000
	-1.462244561339088e-003

 200	2.000265940083051e-002
	6.000000000000000e+000
	2.201192491288325e+000
	5.999999985301789e+000
	-1.461183094398021e-003

 201	2.000267940193051e-002
	6.000000000000000e+000
	2.204090801184964e+000
	5.999999985306135e+000
	-1.460117791595893e-003

 202	2.000269940303050e-002
	6.000000000000000e+000
	2.207008656747682e+000
	5.999999985310512e+000
	-1.459048265852640e-003

 203	2.000271940413050e-002
	6.000000000000000e+000
	2.209947715931948e+000
	5.999999985314921e+000
	-1.457974094869256e-003

 204	2.000273940523050e-002
	6.000000000000000e+000
	2.212909790989201e+000
	5.999999985319364e+000
	-1.456894817170459e-003

 205	2.000275940633050e-002
	6.000000000000000e+000
	2.215896865944883e+000
	5.999999985323845e+000
	-1.455809927665024e-003

 206	2.000277940743050e-002
	6.000000000000000e+000
	2.218911116167367e+000
	5.999999985328366e+000
	-1.454718872675139e-003

 207	2.000279940853050e-002
	6.000000000000000e+000
	2.221954930221604e+000
	5.999999985332932e+000
	-1.453621044385427e-003

 208	2.000281940963049e-002
	6.000000000000000e+000
	2.225030934178048e+000
	5.999999985337546e+000
	-1.452515774668227e-003

 209	2.000283941073049e-002
	6.000000000000000e+000
	2.228142018500439e+000
	5.999999985342212e+000
	-1.451402328254058e-003

 210	2.000285941183049e-002
	6.000000000000000e+000
	2.231291367553889e+000
	5.999999985346936e+000
	-1.450279895236477e-003

 211	2.000287941293049e-002
	6.000000000000000e+000
	2.234482491625824e+000
	5.999999985351723e+000
	-1.449147582939250e-003

 212	2.000289941403049e-002
	6.000000000000000e+000
	2.237719261133609e+000
	5.999999985356578e+000
	-1.448004407228640e-003

 213	2.000291941513049e-002
	6.000000000000000e+000
	2.241005942343351e+000
	5.999999985361509e+000
	-1.446849283442614e-003

 214	2.000293941623049e-002
	6.000000000000000e+000
	2.244347233406153e+000
	5.999999985366520e+000
	-1.445681017241290e-003

 215	2.000295941733048e-002
	6.000000000000000e+000
	2.247748298785276e+000
	5.999999985371622e+000
	-1.444498295868302e-003

 216	2.000297941843048e-002
	6.000000000000000e+000
	2.251214799098872e+000
	5.999999985376822e+000
	-1.443299680579988e-003

 217	2.000299941953048e-002
	6.000000000000000e+000
	2.254752911979561e+000
	5.999999985382129e+000
	-1.442083601361664e-003

 218	2.000301942063048e-002
	6.000000000000000e+000
	2.258369337694813e+000
	5.999999985387554e+000
	-1.440848355521744e-003

 219	2.000303942173048e-002
	6.000000000000000e+000
	2.262071280946049e+000
	5.999999985393107e+000
	-1.439592112346547e-003

 220	2.000305942283048e-002
	6.000000000000000e+000
	2.265866397592904e+000
	5.999999985398799e+000
	-1.438312926677899e-003

 221	2.000307942393047e-002
	6.000000000000000e+000
	2.269762692362288e+000
	5.999999985404643e+000
	-1.437008764958073e-003

 222	2.000309942503047e-002
	6.000000000000000e+000
	2.273768351587602e+000
	5.999999985410652e+000
	-1.435677547799033e-003

 223	2.000311942613047e-002
	6.000000000000000e+000
	2.277891494928642e+000
	5.999999985416837e+000
	-1.434317213156213e-003

 224	2.000313942723047e-002
	6.000000000000000e+000
	2.282139833673822e+000
	5.999999985423210e+000
	-1.432925803256959e-003

 225	2.000315942833047e-002
	6.000000000000000e+000
	2.286520232799667e+000
	5.999999985429779e+000
	-1.431501575997882e-003
